 Gaussian 16, Revision A.03,

 ---------------------------------------------------------------
 # opt=tight mp2/6-31g(d) nosymm pop=(mk,dipole) density=current
 ---------------------------------------------------------------

 -----------
 frg_mp2 opt
 -----------
 Symbolic Z-matrix:
 Charge =  0 Multiplicity = 1

 SCF Done:  E(RHF) =  -617.784306717     A.U. after   17 cycles
 E2 =    -0.1801168173D+01 EUMP2 =    -0.61958547489041D+03
 SCF Done:  E(RHF) =  -617.858033020     A.U. after   14 cycles
 E2 =    -0.1786479320D+01 EUMP2 =    -0.61964451233997D+03
 SCF Done:  E(RHF) =  -617.900640890     A.U. after   14 cycles
 E2 =    -0.1768013744D+01 EUMP2 =    -0.61966865463403D+03
 SCF Done:  E(RHF) =  -617.896672805     A.U. after   14 cycles
 E2 =    -0.1777972484D+01 EUMP2 =    -0.61967464528943D+03
 SCF Done:  E(RHF) =  -617.896639093     A.U. after   13 cycles
 E2 =    -0.1779393747D+01 EUMP2 =    -0.61967603283980D+03
 SCF Done:  E(RHF) =  -617.895571121     A.U. after   14 cycles
 E2 =    -0.1781102893D+01 EUMP2 =    -0.61967667401473D+03
 SCF Done:  E(RHF) =  -617.895582369     A.U. after   14 cycles
 E2 =    -0.1781193948D+01 EUMP2 =    -0.61967677631659D+03
 SCF Done:  E(RHF) =  -617.895960028     A.U. after   12 cycles
 E2 =    -0.1780915451D+01 EUMP2 =    -0.61967687547819D+03
 SCF Done:  E(RHF) =  -617.896880159     A.U. after   13 cycles
 E2 =    -0.1780142074D+01 EUMP2 =    -0.61967702223348D+03
 SCF Done:  E(RHF) =  -617.898501438     A.U. after   14 cycles
 E2 =    -0.1778726073D+01 EUMP2 =    -0.61967722751176D+03
 E2 =    -0.1777297024D+01 EUMP2 =    -0.61967784673806D+03
 E2 =    -0.1776000050D+01 EUMP2 =    -0.61967787576307D+03
 E2 =    -0.1777725183D+01 EUMP2 =    -0.61967957246417D+03
 E2 =    -0.1779109490D+01 EUMP2 =    -0.61968100649253D+03
 E2 =    -0.1781918998D+01 EUMP2 =    -0.61968124876049D+03
 E2 =    -0.1781064701D+01 EUMP2 =    -0.61968183790164D+03
 SCF Done:  E(RHF) =  -617.901089564     A.U. after   11 cycles
 E2 =    -0.1780778259D+01 EUMP2 =    -0.61968186782229D+03
 SCF Done:  E(RHF) =  -617.901012128     A.U. after   11 cycles
 E2 =    -0.1780859763D+01 EUMP2 =    -0.61968187189083D+03
 SCF Done:  E(RHF) =  -617.901008473     A.U. after   10 cycles
 E2 =    -0.1780864282D+01 EUMP2 =    -0.61968187275490D+03
 SCF Done:  E(RHF) =  -617.901001929     A.U. after   10 cycles
 E2 =    -0.1780871198D+01 EUMP2 =    -0.61968187312691D+03
 SCF Done:  E(RHF) =  -617.901004496     A.U. after    9 cycles
 E2 =    -0.1780868688D+01 EUMP2 =    -0.61968187318372D+03
 SCF Done:  E(RHF) =  -617.901005978     A.U. after    8 cycles
 E2 =    -0.1780867223D+01 EUMP2 =    -0.61968187320036D+03
 SCF Done:  E(RHF) =  -617.901006511     A.U. after    6 cycles
 E2 =    -0.1780866680D+01 EUMP2 =    -0.61968187319075D+03
 SCF Done:  E(RHF) =  -617.901006941     A.U. after    9 cycles
 E2 =    -0.1780866251D+01 EUMP2 =    -0.61968187319271D+03
 SCF Done:  E(RHF) =  -617.901005760     A.U. after    9 cycles
 E2 =    -0.1780867446D+01 EUMP2 =    -0.61968187320583D+03
 Optimization completed.
    -- Stationary point found.

 ESP charges:
               1
     1  C    0.174263
     2  C    0.349443
     3  C    0.336025
     4  C   -0.540189
     5  C    0.263583
     6  C    0.276570
     7  H    0.067840
     8  H    0.079924
     9  H    0.252108
    10  H    0.108521
    11  N   -0.578402
    12  N    0.350632
    13  N   -0.638888
    14  O   -0.356355
    15  O   -0.183227
    16  O   -0.390339
    17  H    0.428490
 Sum of ESP charges =  -0.00000

 Normal termination of Gaussian 16 at Wed Jan 16 16:45:04 2019.
 Gaussian 16:  ES64L-G16RevA.03 25-Dec-2016

 -------------------------------------------------
 #MP2/6-31G* NOSYMM GEOM=ALLCHECK FREQ IOP(7/33=1)
 -------------------------------------------------

 Structure from the checkpoint file:  "frg_mp2.chk"
 -----------
 frg_mp2 opt
 -----------
 Charge =  0 Multiplicity = 1

                          Input orientation:
 ---------------------------------------------------------------------
 Center     Atomic      Atomic             Coordinates (Angstroms)
 Number     Number       Type             X           Y           Z
 ---------------------------------------------------------------------
      1          6           0       -1.809014   -0.172634   -0.054348
      2          6           0       -2.590707    1.043626   -0.166168
      3          6           0       -0.677571    2.357418   -0.075520
      4          6           0        0.151903    1.285719    0.037247
      5          6           0        0.206183   -1.226130    0.110296
      6          6           0       -0.985841   -2.205653    0.070673
      7          1           0       -3.672438    0.954278   -0.248273
      8          1           0       -0.284739    3.367467   -0.090059
      9          1           0        1.233240    1.319292    0.119372
     10          1           0       -1.021841   -2.820996    0.979301
     11          7           0       -2.059477    2.239776   -0.177774
     12          7           0       -0.426979    0.036780    0.056457
     13          7           0       -2.206795   -1.411724   -0.051740
     14          8           0        1.400705   -1.424241    0.185741
     15          8           0       -0.783335   -3.015959   -1.070958
     16          8           0       -1.872859   -3.993738   -1.030619
     17          1           0       -2.621826   -3.407764   -1.277186
 ---------------------------------------------------------------------

 SCF Done:  E(RHF) =  -617.901005760     A.U. after   16 cycles
 E2 =    -0.1780867447D+01 EUMP2 =    -0.61968187320666D+03
 E2 =    -0.1780867447D+01 EUMP2 =    -0.61968187320666D+03

 Alpha  occ. eigenvalues --  -20.65244 -20.64532 -20.59886 -15.67554 -15.63290
 Alpha  occ. eigenvalues --  -15.58310 -11.41060 -11.37680 -11.35379 -11.33368
 Alpha  occ. eigenvalues --  -11.32563 -11.29786  -1.49036  -1.44299  -1.37666
 Alpha  occ. eigenvalues --   -1.28527  -1.25312  -1.21533  -1.06725  -1.03049
 Alpha  occ. eigenvalues --   -0.91947  -0.89485  -0.85030  -0.75886  -0.74567
 Alpha  occ. eigenvalues --   -0.73825  -0.70159  -0.68489  -0.67645  -0.66097
 Alpha  occ. eigenvalues --   -0.65360  -0.61546  -0.60231  -0.58327  -0.55884
 Alpha  occ. eigenvalues --   -0.53794  -0.50498  -0.49201  -0.48426  -0.47276
 Alpha  occ. eigenvalues --   -0.46460  -0.43673  -0.33164
 Alpha virt. eigenvalues --    0.02797   0.13092   0.14358   0.22414   0.23868
 Alpha virt. eigenvalues --    0.26123   0.26683   0.28583   0.29326   0.30421
 Alpha virt. eigenvalues --    0.31215   0.34423   0.37632   0.40756   0.41540

 Mulliken charges:
               1
     1  C    0.639610
     2  C    0.031062
     3  C   -0.059828
     4  C    0.108813
     5  C    0.761318
     6  C    0.272599
     7  H    0.254635
     8  H    0.232446
     9  H    0.284857
    10  H    0.235010
    11  N   -0.450233
    12  N   -0.808295
    13  N   -0.640638
    14  O   -0.539373
    15  O   -0.365208
    16  O   -0.438759
    17  H    0.481985
 Sum of Mulliken charges =  -0.00000

 Dipole moment (field-independent basis, Debye):
    X=             -1.0988    Y=              3.5540    Z=              1.0021  Tot=              3.8526
 Quadrupole moment (field-independent basis, Debye-Ang):
   XX=            -68.1076   YY=            -80.8620   ZZ=            -67.8844
   XY=              6.7483   XZ=              1.3462   YZ=             -3.6851

  Exact polarizability:  97.669   4.235 119.204   6.052   1.968  41.506
 Approx polarizability:  93.002   5.201 100.602   3.751  -0.513  44.726

                      1                      2                      3
                      A                      A                      A
 Frequencies --     58.8323               117.8255               141.7971
 Red. masses --      7.3932                 5.2138                 9.2771
 Frc consts  --      0.0151                 0.0426                 0.1099
 IR Inten    --      0.5373                14.7984                 4.6915

                      4                      5                      6
                      A                      A                      A
 Frequencies --    174.9316               201.0233               272.6712
 Red. masses --      5.5888                 7.1698                 8.4680
 Frc consts  --      0.1008                 0.1707                 0.3709
 IR Inten    --      3.7287                 1.0330                 0.6707

                      7                      8                      9
                      A                      A                      A
 Frequencies --    329.2887               389.0885               397.4084
 Red. masses --      3.2204                 3.8046                 1.6512
 Frc consts  --      0.2057                 0.3394                 0.1536
 IR Inten    --     25.6741                40.2549               106.6202

                     10                     11                     12
                      A                      A                      A
 Frequencies --    454.0072               521.3205               546.9877
 Red. masses --      4.6581                 6.0047                 9.1986
 Frc consts  --      0.5657                 0.9615                 1.6215
 IR Inten    --     15.5664                13.9393                21.2323

                     13                     14                     15
                      A                      A                      A
 Frequencies --    598.4134               641.2275               671.4166
 Red. masses --      5.7052                 7.3365                 7.0067
 Frc consts  --      1.2037                 1.7773                 1.8610
 IR Inten    --     18.5110                 2.5024                 5.7045

                     16                     17                     18
                      A                      A                      A
 Frequencies --    703.1890               729.1209               788.9289
 Red. masses --      8.4577                 9.4916                 1.3604
 Frc consts  --      2.4640                 2.9730                 0.4989
 IR Inten    --     13.8738                10.0366                34.3384

                     19                     20                     21
                      A                      A                      A
 Frequencies --    832.8206               879.5020               888.5549
 Red. masses --      6.3872                 8.2977                 1.1644
 Frc consts  --      2.6102                 3.7816                 0.5417
 IR Inten    --     16.7343                 9.6709                 0.6323

                     22                     23                     24
                      A                      A                      A
 Frequencies --    911.6436               923.6064              1032.7728
 Red. masses --      1.3580                11.6500                 3.5208
 Frc consts  --      0.6650                 5.8553                 2.2126
 IR Inten    --      0.5998                 1.4282                 2.0110

                     25                     26                     27
                      A                      A                      A
 Frequencies --   1044.1448              1070.5976              1137.8981
 Red. masses --      4.1659                 4.9224                 6.3714
 Frc consts  --      2.6760                 3.3241                 4.8606
 IR Inten    --     26.4234                16.0907                58.6616

                     28                     29                     30
                      A                      A                      A
 Frequencies --   1158.9687              1246.2997              1267.0159
 Red. masses --      4.2328                 1.4674                 1.7248
 Frc consts  --      3.3499                 1.3429                 1.6314
 IR Inten    --     95.7182                63.7527                22.2123

                     31                     32                     33
                      A                      A                      A
 Frequencies --   1343.1133              1348.7864              1383.7011
 Red. masses --      1.2580                 1.7918                 1.6279
 Frc consts  --      1.3371                 1.9205                 1.8364
 IR Inten    --     43.7989                53.8552                24.6055

                     34                     35                     36
                      A                      A                      A
 Frequencies --   1413.6724              1424.1256              1491.3368
 Red. masses --      3.4189                 1.1228                 2.7117
 Frc consts  --      4.0256                 1.3417                 3.5534
 IR Inten    --     10.0900               146.9548                83.0137

                     37                     38                     39
                      A                      A                      A
 Frequencies --   1555.7317              1630.4834              1701.1042
 Red. masses --      8.6263                 5.6117                 8.4647
 Frc consts  --     12.3012                 8.7897                14.4320
 IR Inten    --      5.8647               119.6378               116.3969

                     40                     41                     42
                      A                      A                      A
 Frequencies --   1846.2637              3112.8910              3233.4460
 Red. masses --     12.9614                 1.0842                 1.0929
 Frc consts  --     26.0309                 6.1900                 6.7321
 IR Inten    --    222.9318                 7.2969                 2.5644

                     43                     44                     45
                      A                      A                      A
 Frequencies --   3271.9232              3288.1965              3648.9086
 Red. masses --      1.0892                 1.1008                 1.0678
 Frc consts  --      6.8701                 7.0126                 8.3767
 IR Inten    --      6.6800                 3.2790                28.0335

 - Thermochemistry -
 -------------------
 Temperature   298.150 Kelvin.  Pressure   1.00000 Atm.
 Atom     1 has atomic number  6 and mass  12.00000

 Molecular mass:   167.03309 amu.
 Principal axes and moments of inertia in atomic units:
                           1         2         3
     Eigenvalues --   915.023252486.459243275.86690
           X           -0.02543   0.98807  -0.15187
           Y            0.99223   0.00644  -0.12427
           Z            0.12181   0.15385   0.98056
 This molecule is an asymmetric top.
 Rotational symmetry number  1.
 Warning -- assumption of classical behavior for rotation
           may cause significant error
 Rotational temperatures (Kelvin)      0.09466     0.03483     0.02644
 Rotational constants (GHZ):           1.97234     0.72583     0.55092
 Zero-point vibrational energy     309982.3 (Joules/Mol)
                                   74.08754 (Kcal/Mol)
 Warning -- explicit consideration of  13 degrees of freedom as
           vibrations may cause significant error
 Vibrational temperatures:     84.65   169.52   204.01   251.69   289.23
          (Kelvin)            392.31   473.77   559.81   571.78   653.22
                              750.06   786.99   860.98   922.58   966.02
                             1011.73  1049.04  1135.09  1198.24  1265.41
                             1278.43  1311.65  1328.86  1485.93  1502.29
                             1540.35  1637.18  1667.50  1793.15  1822.95
                             1932.44  1940.60  1990.84  2033.96  2049.00
                             2145.70  2238.35  2345.90  2447.51  2656.36
                             4478.76  4652.21  4707.57  4730.98  5249.97

 Zero-point correction=                           0.118066 (Hartree/Particle)
 Thermal correction to Energy=                    0.127586
 Thermal correction to Enthalpy=                  0.128530
 Thermal correction to Gibbs Free Energy=         0.082653
 Sum of electronic and zero-point Energies=           -619.563807
 Sum of electronic and thermal Energies=              -619.554287
 Sum of electronic and thermal Enthalpies=            -619.553343
 Sum of electronic and thermal Free Energies=         -619.599220

                     E (Thermal)             CV                S
                      KCal/Mol        Cal/Mol-Kelvin    Cal/Mol-Kelvin
 Total                   80.061             35.845             96.555
 Electronic               0.000              0.000              0.000
 Translational            0.889              2.981             41.247
 Rotational               0.889              2.981             30.389
 Vibrational             78.284             29.883             24.919
 Vibration     1          0.596              1.974              4.496
 Vibration     2          0.608              1.935              3.136
 Vibration     3          0.615              1.911              2.779
 Vibration     4          0.627              1.873              2.382
 Vibration     5          0.638              1.838              2.124
 Vibration     6          0.676              1.724              1.579
 Vibration     7          0.712              1.617              1.264
 Vibration     8          0.757              1.493              1.004
 Vibration     9          0.764              1.476              0.972
 Vibration    10          0.812              1.352              0.784
 Vibration    11          0.876              1.203              0.607
 Vibration    12          0.902              1.146              0.550
 Vibration    13          0.956              1.035              0.452

 Optimization completed.
    -- Stationary point found.
 Normal termination of Gaussian 16 at Wed Jan 16 17:20:07 2019.
